ATOMS
  C         0.0000000      0.0000000      6.7400000
  C         0.0000000      0.0000000      0.0000000
  C         0.0000000      3.3700000      3.3700000
  C         0.0000000      6.7400000      6.7400000
  C         3.3700000      0.0000000      3.3700000
  C         3.3700000      3.3700000      6.7400000
  C         6.7400000      0.0000000      6.7400000
  C         0.0000000      6.7400000      0.0000000
  C         3.3700000      3.3700000      0.0000000
  C         3.3700000      6.7400000      3.3700000
  C         6.7400000      0.0000000      0.0000000
  C         6.7400000      3.3700000      3.3700000
  C         6.7400000      6.7400000      6.7400000
  C         6.7400000      6.7400000      0.0000000
  C         1.6850000      1.6850000      1.6850000
  C         1.6850000      5.0550000      5.0550000
  C         5.0550000      1.6850000      5.0550000
  C         5.0550000      5.0550000      1.6850000
BEGIN_BLOCK_DATAGRID_3D
  non_periodic_3D_density
  BEGIN_DATAGRID_3D_charge_density
               21             21             21
        0.0000000      0.0000000      0.0000000
        6.7400000      0.0000000      0.0000000
        0.0000000      6.7400000      0.0000000
        0.0000000      0.0000000      6.7400000
        4.4543423      0.1795300      0.2388327      0.1984659      0.1328654
        0.0812201      0.0469469      0.0288232      0.0197883      0.0153245
        0.0139140      0.0153245      0.0197883      0.0288232      0.0469469
        0.0812201      0.1328654      0.1984659      0.2388327      0.1795300
        4.4543423      0.1795300      0.2078392      0.2413896      0.1924380
        0.1308304      0.0813526      0.0483624      0.0305500      0.0213977
        0.0167862      0.0153245      0.0167862      0.0213977      0.0305500
        0.0483624      0.0813526      0.1308304      0.1924380      0.2413896
        0.2078392      0.1795300      0.2388327      0.2413896      0.2208256
        0.1730145      0.1240949      0.0815642      0.0526639      0.0358905
        0.0264330      0.0213977      0.0197883      0.0213977      0.0264330
        0.0358905      0.0526639      0.0815642      0.1240949      0.1730145
        0.2208256      0.2413896      0.2388327      0.1984659      0.1924380
        0.1730145      0.1445873      0.1116635      0.0815641      0.0597288
        0.0452513      0.0358905      0.0305500      0.0288232      0.0305500
        0.0358905      0.0452513      0.0597288      0.0815641      0.1116635
        0.1445873      0.1730145      0.1924380      0.1984659      0.1328654
        0.1308304      0.1240949      0.1116635      0.0961166      0.0813525
        0.0692484      0.0597288      0.0526639      0.0483624      0.0469469
        0.0483624      0.0526639      0.0597288      0.0692484      0.0813525
        0.0961166      0.1116635      0.1240949      0.1308304      0.1328654
        0.0812201      0.0813526      0.0815642      0.0815641      0.0813525
        0.0812199      0.0813525      0.0815641      0.0815642      0.0813526
        0.0812201      0.0813526      0.0815642      0.0815641      0.0813525
        0.0812199      0.0813525      0.0815641      0.0815642      0.0813526
        0.0812201      0.0469469      0.0483624      0.0526639      0.0597288
        0.0692484      0.0813525      0.0961166      0.1116635      0.1240949
        0.1308304      0.1328654      0.1308304      0.1240949      0.1116635
        0.0961166      0.0813525      0.0692484      0.0597288      0.0526639
        0.0483624      0.0469469      0.0288232      0.0305500      0.0358905
        0.0452513      0.0597288      0.0815641      0.1116635      0.1445873
        0.1730145      0.1924380      0.1984659      0.1924380      0.1730145
        0.1445873      0.1116635      0.0815641      0.0597288      0.0452513
        0.0358905      0.0305500      0.0288232      0.0197883      0.0213977
        0.0264330      0.0358905      0.0526639      0.0815642      0.1240949
        0.1730145      0.2208256      0.2413896      0.2388327      0.2413896
        0.2208256      0.1730145      0.1240949      0.0815642      0.0526639
        0.0358905      0.0264330      0.0213977      0.0197883      0.0153245
        0.0167862      0.0213977      0.0305500      0.0483624      0.0813526
        0.1308304      0.1924380      0.2413896      0.2078392      0.1795300
        0.2078392      0.2413896      0.1924380      0.1308304      0.0813526
        0.0483624      0.0305500      0.0213977      0.0167862      0.0153245
        0.0139140      0.0153245      0.0197883      0.0288232      0.0469469
        0.0812201      0.1328654      0.1984659      0.2388327      0.1795300
        4.4543423      0.1795300      0.2388327      0.1984659      0.1328654
        0.0812201      0.0469469      0.0288232      0.0197883      0.0153245
        0.0139140      0.0153245      0.0167862      0.0213977      0.0305500
        0.0483624      0.0813526      0.1308304      0.1924380      0.2413896
        0.2078392      0.1795300      0.2078392      0.2413896      0.1924380
        0.1308304      0.0813526      0.0483624      0.0305500      0.0213977
        0.0167862      0.0153245      0.0197883      0.0213977      0.0264330
        0.0358905      0.0526639      0.0815642      0.1240949      0.1730145
        0.2208256      0.2413896      0.2388327      0.2413896      0.2208256
        0.1730145      0.1240949      0.0815642      0.0526639      0.0358905
        0.0264330      0.0213977      0.0197883      0.0288232      0.0305500
        0.0358905      0.0452513      0.0597288      0.0815641      0.1116635
        0.1445873      0.1730145      0.1924380      0.1984659      0.1924380
        0.1730145      0.1445873      0.1116635      0.0815641      0.0597288
        0.0452513      0.0358905      0.0305500      0.0288232      0.0469469
        0.0483624      0.0526639      0.0597288      0.0692484      0.0813525
        0.0961166      0.1116635      0.1240949      0.1308304      0.1328654
        0.1308304      0.1240949      0.1116635      0.0961166      0.0813525
        0.0692484      0.0597288      0.0526639      0.0483624      0.0469469
        0.0812201      0.0813526      0.0815642      0.0815641      0.0813525
        0.0812199      0.0813525      0.0815641      0.0815642      0.0813526
        0.0812201      0.0813526      0.0815642      0.0815641      0.0813525
        0.0812199      0.0813525      0.0815641      0.0815642      0.0813526
        0.0812201      0.1328654      0.1308304      0.1240949      0.1116635
        0.0961166      0.0813525      0.0692484      0.0597288      0.0526639
        0.0483624      0.0469469      0.0483624      0.0526639      0.0597288
        0.0692484      0.0813525      0.0961166      0.1116635      0.1240949
        0.1308304      0.1328654      0.1984659      0.1924380      0.1730145
        0.1445873      0.1116635      0.0815641      0.0597288      0.0452513
        0.0358905      0.0305500      0.0288232      0.0305500      0.0358905
        0.0452513      0.0597288      0.0815641      0.1116635      0.1445873
        0.1730145      0.1924380      0.1984659      0.2388327      0.2413896
        0.2208256      0.1730145      0.1240949      0.0815642      0.0526639
        0.0358905      0.0264330      0.0213977      0.0197883      0.0213977
        0.0264330      0.0358905      0.0526639      0.0815642      0.1240949
        0.1730145      0.2208256      0.2413896      0.2388327      0.1795300
        0.2078392      0.2413896      0.1924380      0.1308304      0.0813526
        0.0483624      0.0305500      0.0213977      0.0167862      0.0153245
        0.0167862      0.0213977      0.0305500      0.0483624      0.0813526
        0.1308304      0.1924380      0.2413896      0.2078392      0.1795300
        4.4543423      0.1795300      0.2388327      0.1984659      0.1328654
        0.0812201      0.0469469      0.0288232      0.0197883      0.0153245
        0.0139140      0.0153245      0.0197883      0.0288232      0.0469469
        0.0812201      0.1328654      0.1984659      0.2388327      0.1795300
        4.4543423      0.1795300      0.2078392      0.2413896      0.1924380
        0.1308304      0.0813526      0.0483624      0.0305500      0.0213977
        0.0167862      0.0153245      0.0167862      0.0213977      0.0305500
        0.0483624      0.0813526      0.1308304      0.1924380      0.2413896
        0.2078392      0.1795300      0.2078392      0.2559271      0.2639551
        0.2098137      0.1484655      0.0961166      0.0595833      0.0383747
        0.0263745      0.0196711      0.0167862      0.0170575      0.0202233
        0.0272519      0.0416485      0.0692486      0.1123253      0.1660558
        0.2149522      0.2150898      0.2078392      0.2413896      0.2639551
        0.2524094      0.2096518      0.1603190      0.1116634      0.0753375
        0.0515836      0.0360941      0.0263745      0.0213977      0.0202233
        0.0221349      0.0274731      0.0385669      0.0597290      0.0936964
        0.1358038      0.1808512      0.2149522      0.2413896      0.1924380
        0.2098137      0.2096518      0.1926606      0.1603189      0.1240946
        0.0936960      0.0700314      0.0515836      0.0383747      0.0305500
        0.0272519      0.0274731      0.0309315      0.0385669      0.0526639
        0.0753377      0.1048453      0.1358038      0.1660558      0.1924380
        0.1308304      0.1484655      0.1603190      0.1603189      0.1484651
        0.1308299      0.1123248      0.0936960      0.0753375      0.0595833
        0.0483624      0.0416485      0.0385669      0.0385669      0.0416484
        0.0483624      0.0595834      0.0753377      0.0936964      0.1123253
        0.1308304      0.0813526      0.0961166      0.1116634      0.1240946
        0.1308299      0.1328648      0.1308299      0.1240946      0.1116634
        0.0961166      0.0813526      0.0692486      0.0597290      0.0526639
        0.0483624      0.0469469      0.0483624      0.0526639      0.0597290
        0.0692486      0.0813526      0.0483624      0.0595833      0.0753375
        0.0936960      0.1123248      0.1308299      0.1484651      0.1603189
        0.1603190      0.1484655      0.1308304      0.1123253      0.0936964
        0.0753377      0.0595834      0.0483624      0.0416484      0.0385669
        0.0385669      0.0416485      0.0483624      0.0305500      0.0383747
        0.0515836      0.0700314      0.0936960      0.1240946      0.1603189
        0.1926606      0.2096518      0.2098137      0.1924380      0.1660558
        0.1358038      0.1048453      0.0753377      0.0526639      0.0385669
        0.0309315      0.0274731      0.0272519      0.0305500      0.0213977
        0.0263745      0.0360941      0.0515836      0.0753375      0.1116634
        0.1603190      0.2096518      0.2524094      0.2639551      0.2413896
        0.2149522      0.1808512      0.1358038      0.0936964      0.0597290
        0.0385669      0.0274731      0.0221349      0.0202233      0.0213977
        0.0167862      0.0196711      0.0263745      0.0383747      0.0595833
        0.0961166      0.1484655      0.2098137      0.2639551      0.2559271
        0.2078392      0.2150898      0.2149522      0.1660558      0.1123253
        0.0692486      0.0416485      0.0272519      0.0202233      0.0170575
        0.0167862      0.0153245      0.0167862      0.0213977      0.0305500
        0.0483624      0.0813526      0.1308304      0.1924380      0.2413896
        0.2078392      0.1795300      0.2078392      0.2413896      0.1924380
        0.1308304      0.0813526      0.0483624      0.0305500      0.0213977
        0.0167862      0.0153245      0.0167862      0.0170575      0.0202233
        0.0272519      0.0416485      0.0692486      0.1123253      0.1660558
        0.2149522      0.2150898      0.2078392      0.2559271      0.2639551
        0.2098137      0.1484655      0.0961166      0.0595833      0.0383747
        0.0263745      0.0196711      0.0167862      0.0213977      0.0202233
        0.0221349      0.0274731      0.0385669      0.0597290      0.0936964
        0.1358038      0.1808512      0.2149522      0.2413896      0.2639551
        0.2524094      0.2096518      0.1603190      0.1116634      0.0753375
        0.0515836      0.0360941      0.0263745      0.0213977      0.0305500
        0.0272519      0.0274731      0.0309315      0.0385669      0.0526639
        0.0753377      0.1048453      0.1358038      0.1660558      0.1924380
        0.2098137      0.2096518      0.1926606      0.1603189      0.1240946
        0.0936960      0.0700314      0.0515836      0.0383747      0.0305500
        0.0483624      0.0416485      0.0385669      0.0385669      0.0416484
        0.0483624      0.0595834      0.0753377      0.0936964      0.1123253
        0.1308304      0.1484655      0.1603190      0.1603189      0.1484651
        0.1308299      0.1123248      0.0936960      0.0753375      0.0595833
        0.0483624      0.0813526      0.0692486      0.0597290      0.0526639
        0.0483624      0.0469469      0.0483624      0.0526639      0.0597290
        0.0692486      0.0813526      0.0961166      0.1116634      0.1240946
        0.1308299      0.1328648      0.1308299      0.1240946      0.1116634
        0.0961166      0.0813526      0.1308304      0.1123253      0.0936964
        0.0753377      0.0595834      0.0483624      0.0416484      0.0385669
        0.0385669      0.0416485      0.0483624      0.0595833      0.0753375
        0.0936960      0.1123248      0.1308299      0.1484651      0.1603189
        0.1603190      0.1484655      0.1308304      0.1924380      0.1660558
        0.1358038      0.1048453      0.0753377      0.0526639      0.0385669
        0.0309315      0.0274731      0.0272519      0.0305500      0.0383747
        0.0515836      0.0700314      0.0936960      0.1240946      0.1603189
        0.1926606      0.2096518      0.2098137      0.1924380      0.2413896
        0.2149522      0.1808512      0.1358038      0.0936964      0.0597290
        0.0385669      0.0274731      0.0221349      0.0202233      0.0213977
        0.0263745      0.0360941      0.0515836      0.0753375      0.1116634
        0.1603190      0.2096518      0.2524094      0.2639551      0.2413896
        0.2078392      0.2150898      0.2149522      0.1660558      0.1123253
        0.0692486      0.0416485      0.0272519      0.0202233      0.0170575
        0.0167862      0.0196711      0.0263745      0.0383747      0.0595833
        0.0961166      0.1484655      0.2098137      0.2639551      0.2559271
        0.2078392      0.1795300      0.2078392      0.2413896      0.1924380
        0.1308304      0.0813526      0.0483624      0.0305500      0.0213977
        0.0167862      0.0153245      0.0167862      0.0213977      0.0305500
        0.0483624      0.0813526      0.1308304      0.1924380      0.2413896
        0.2078392      0.1795300      0.2388327      0.2413896      0.2208256
        0.1730145      0.1240949      0.0815642      0.0526639      0.0358905
        0.0264330      0.0213977      0.0197883      0.0213977      0.0264330
        0.0358905      0.0526639      0.0815642      0.1240949      0.1730145
        0.2208256      0.2413896      0.2388327      0.2413896      0.2639551
        0.2524094      0.2096518      0.1603190      0.1116634      0.0753375
        0.0515836      0.0360941      0.0263745      0.0213977      0.0202233
        0.0221349      0.0274731      0.0385669      0.0597290      0.0936964
        0.1358038      0.1808512      0.2149522      0.2413896      0.2208256
        0.2524094      0.2565074      0.2338349      0.1926604      0.1445868
        0.1048449      0.0750392      0.0523241      0.0360941      0.0264330
        0.0221349      0.0215637      0.0240815      0.0309316      0.0452514
        0.0700317      0.1034737      0.1413574      0.1808512      0.2208256
        0.1730145      0.2096518      0.2338349      0.2338347      0.2096512
        0.1730137      0.1358031      0.1034731      0.0750392      0.0515836
        0.0358905      0.0274731      0.0240815      0.0240815      0.0274731
        0.0358906      0.0515838      0.0750396      0.1034737      0.1358038
        0.1730145      0.1240949      0.1603190      0.1926604      0.2096512
        0.2098128      0.1924369      0.1660548      0.1358031      0.1048449
        0.0753375      0.0526639      0.0385669      0.0309316      0.0274731
        0.0272519      0.0305500      0.0383748      0.0515838      0.0700317
        0.0936964      0.1240949      0.0815642      0.1116634      0.1445868
        0.1730137      0.1924369      0.1984647      0.1924369      0.1730137
        0.1445868      0.1116634      0.0815642      0.0597290      0.0452514
        0.0358906      0.0305500      0.0288233      0.0305500      0.0358906
        0.0452514      0.0597290      0.0815642      0.0526639      0.0753375
        0.1048449      0.1358031      0.1660548      0.1924369      0.2098128
        0.2096512      0.1926604      0.1603190      0.1240949      0.0936964
        0.0700317      0.0515838      0.0383748      0.0305500      0.0272519
        0.0274731      0.0309316      0.0385669      0.0526639      0.0358905
        0.0515836      0.0750392      0.1034731      0.1358031      0.1730137
        0.2096512      0.2338347      0.2338349      0.2096518      0.1730145
        0.1358038      0.1034737      0.0750396      0.0515838      0.0358906
        0.0274731      0.0240815      0.0240815      0.0274731      0.0358905
        0.0264330      0.0360941      0.0523241      0.0750392      0.1048449
        0.1445868      0.1926604      0.2338349      0.2565074      0.2524094
        0.2208256      0.1808512      0.1413574      0.1034737      0.0700317
        0.0452514      0.0309316      0.0240815      0.0215637      0.0221349
        0.0264330      0.0213977      0.0263745      0.0360941      0.0515836
        0.0753375      0.1116634      0.1603190      0.2096518      0.2524094
        0.2639551      0.2413896      0.2149522      0.1808512      0.1358038
        0.0936964      0.0597290      0.0385669      0.0274731      0.0221349
        0.0202233      0.0213977      0.0197883      0.0213977      0.0264330
        0.0358905      0.0526639      0.0815642      0.1240949      0.1730145
        0.2208256      0.2413896      0.2388327      0.2413896      0.2208256
        0.1730145      0.1240949      0.0815642      0.0526639      0.0358905
        0.0264330      0.0213977      0.0197883      0.0213977      0.0202233
        0.0221349      0.0274731      0.0385669      0.0597290      0.0936964
        0.1358038      0.1808512      0.2149522      0.2413896      0.2639551
        0.2524094      0.2096518      0.1603190      0.1116634      0.0753375
        0.0515836      0.0360941      0.0263745      0.0213977      0.0264330
        0.0221349      0.0215637      0.0240815      0.0309316      0.0452514
        0.0700317      0.1034737      0.1413574      0.1808512      0.2208256
        0.2524094      0.2565074      0.2338349      0.1926604      0.1445868
        0.1048449      0.0750392      0.0523241      0.0360941      0.0264330
        0.0358905      0.0274731      0.0240815      0.0240815      0.0274731
        0.0358906      0.0515838      0.0750396      0.1034737      0.1358038
        0.1730145      0.2096518      0.2338349      0.2338347      0.2096512
        0.1730137      0.1358031      0.1034731      0.0750392      0.0515836
        0.0358905      0.0526639      0.0385669      0.0309316      0.0274731
        0.0272519      0.0305500      0.0383748      0.0515838      0.0700317
        0.0936964      0.1240949      0.1603190      0.1926604      0.2096512
        0.2098128      0.1924369      0.1660548      0.1358031      0.1048449
        0.0753375      0.0526639      0.0815642      0.0597290      0.0452514
        0.0358906      0.0305500      0.0288233      0.0305500      0.0358906
        0.0452514      0.0597290      0.0815642      0.1116634      0.1445868
        0.1730137      0.1924369      0.1984647      0.1924369      0.1730137
        0.1445868      0.1116634      0.0815642      0.1240949      0.0936964
        0.0700317      0.0515838      0.0383748      0.0305500      0.0272519
        0.0274731      0.0309316      0.0385669      0.0526639      0.0753375
        0.1048449      0.1358031      0.1660548      0.1924369      0.2098128
        0.2096512      0.1926604      0.1603190      0.1240949      0.1730145
        0.1358038      0.1034737      0.0750396      0.0515838      0.0358906
        0.0274731      0.0240815      0.0240815      0.0274731      0.0358905
        0.0515836      0.0750392      0.1034731      0.1358031      0.1730137
        0.2096512      0.2338347      0.2338349      0.2096518      0.1730145
        0.2208256      0.1808512      0.1413574      0.1034737      0.0700317
        0.0452514      0.0309316      0.0240815      0.0215637      0.0221349
        0.0264330      0.0360941      0.0523241      0.0750392      0.1048449
        0.1445868      0.1926604      0.2338349      0.2565074      0.2524094
        0.2208256      0.2413896      0.2149522      0.1808512      0.1358038
        0.0936964      0.0597290      0.0385669      0.0274731      0.0221349
        0.0202233      0.0213977      0.0263745      0.0360941      0.0515836
        0.0753375      0.1116634      0.1603190      0.2096518      0.2524094
        0.2639551      0.2413896      0.2388327      0.2413896      0.2208256
        0.1730145      0.1240949      0.0815642      0.0526639      0.0358905
        0.0264330      0.0213977      0.0197883      0.0213977      0.0264330
        0.0358905      0.0526639      0.0815642      0.1240949      0.1730145
        0.2208256      0.2413896      0.2388327      0.1984659      0.1924380
        0.1730145      0.1445873      0.1116635      0.0815641      0.0597288
        0.0452513      0.0358905      0.0305500      0.0288232      0.0305500
        0.0358905      0.0452513      0.0597288      0.0815641      0.1116635
        0.1445873      0.1730145      0.1924380      0.1984659      0.1924380
        0.2098137      0.2096518      0.1926606      0.1603189      0.1240946
        0.0936960      0.0700314      0.0515836      0.0383747      0.0305500
        0.0272519      0.0274731      0.0309315      0.0385669      0.0526639
        0.0753377      0.1048453      0.1358038      0.1660558      0.1924380
        0.1730145      0.2096518      0.2338349      0.2338347      0.2096512
        0.1730137      0.1358031      0.1034731      0.0750392      0.0515836
        0.0358905      0.0274731      0.0240815      0.0240815      0.0274731
        0.0358906      0.0515838      0.0750396      0.1034737      0.1358038
        0.1730145      0.1445873      0.1926606      0.2338347      0.2565067
        0.2524083      0.2208243      0.1808499      0.1413565      0.1034731
        0.0700314      0.0452513      0.0309315      0.0240815      0.0215637
        0.0221349      0.0264330      0.0360942      0.0523244      0.0750396
        0.1048453      0.1445873      0.1116635      0.1603189      0.2096512
        0.2524083      0.2639535      0.2413879      0.2149506      0.1808499
        0.1358031      0.0936960      0.0597288      0.0385669      0.0274731
        0.0221349      0.0202233      0.0213978      0.0263745      0.0360942
        0.0515838      0.0753377      0.1116635      0.0815641      0.1240946
        0.1730137      0.2208243      0.2413879      0.2388309      0.2413879
        0.2208243      0.1730137      0.1240946      0.0815641      0.0526639
        0.0358906      0.0264330      0.0213978      0.0197883      0.0213978
        0.0264330      0.0358906      0.0526639      0.0815641      0.0597288
        0.0936960      0.1358031      0.1808499      0.2149506      0.2413879
        0.2639535      0.2524083      0.2096512      0.1603189      0.1116635
        0.0753377      0.0515838      0.0360942      0.0263745      0.0213978
        0.0202233      0.0221349      0.0274731      0.0385669      0.0597288
        0.0452513      0.0700314      0.1034731      0.1413565      0.1808499
        0.2208243      0.2524083      0.2565067      0.2338347      0.1926606
        0.1445873      0.1048453      0.0750396      0.0523244      0.0360942
        0.0264330      0.0221349      0.0215637      0.0240815      0.0309315
        0.0452513      0.0358905      0.0515836      0.0750392      0.1034731
        0.1358031      0.1730137      0.2096512      0.2338347      0.2338349
        0.2096518      0.1730145      0.1358038      0.1034737      0.0750396
        0.0515838      0.0358906      0.0274731      0.0240815      0.0240815
        0.0274731      0.0358905      0.0305500      0.0383747      0.0515836
        0.0700314      0.0936960      0.1240946      0.1603189      0.1926606
        0.2096518      0.2098137      0.1924380      0.1660558      0.1358038
        0.1048453      0.0753377      0.0526639      0.0385669      0.0309315
        0.0274731      0.0272519      0.0305500      0.0288232      0.0305500
        0.0358905      0.0452513      0.0597288      0.0815641      0.1116635
        0.1445873      0.1730145      0.1924380      0.1984659      0.1924380
        0.1730145      0.1445873      0.1116635      0.0815641      0.0597288
        0.0452513      0.0358905      0.0305500      0.0288232      0.0305500
        0.0272519      0.0274731      0.0309315      0.0385669      0.0526639
        0.0753377      0.1048453      0.1358038      0.1660558      0.1924380
        0.2098137      0.2096518      0.1926606      0.1603189      0.1240946
        0.0936960      0.0700314      0.0515836      0.0383747      0.0305500
        0.0358905      0.0274731      0.0240815      0.0240815      0.0274731
        0.0358906      0.0515838      0.0750396      0.1034737      0.1358038
        0.1730145      0.2096518      0.2338349      0.2338347      0.2096512
        0.1730137      0.1358031      0.1034731      0.0750392      0.0515836
        0.0358905      0.0452513      0.0309315      0.0240815      0.0215637
        0.0221349      0.0264330      0.0360942      0.0523244      0.0750396
        0.1048453      0.1445873      0.1926606      0.2338347      0.2565067
        0.2524083      0.2208243      0.1808499      0.1413565      0.1034731
        0.0700314      0.0452513      0.0597288      0.0385669      0.0274731
        0.0221349      0.0202233      0.0213978      0.0263745      0.0360942
        0.0515838      0.0753377      0.1116635      0.1603189      0.2096512
        0.2524083      0.2639535      0.2413879      0.2149506      0.1808499
        0.1358031      0.0936960      0.0597288      0.0815641      0.0526639
        0.0358906      0.0264330      0.0213978      0.0197883      0.0213978
        0.0264330      0.0358906      0.0526639      0.0815641      0.1240946
        0.1730137      0.2208243      0.2413879      0.2388309      0.2413879
        0.2208243      0.1730137      0.1240946      0.0815641      0.1116635
        0.0753377      0.0515838      0.0360942      0.0263745      0.0213978
        0.0202233      0.0221349      0.0274731      0.0385669      0.0597288
        0.0936960      0.1358031      0.1808499      0.2149506      0.2413879
        0.2639535      0.2524083      0.2096512      0.1603189      0.1116635
        0.1445873      0.1048453      0.0750396      0.0523244      0.0360942
        0.0264330      0.0221349      0.0215637      0.0240815      0.0309315
        0.0452513      0.0700314      0.1034731      0.1413565      0.1808499
        0.2208243      0.2524083      0.2565067      0.2338347      0.1926606
        0.1445873      0.1730145      0.1358038      0.1034737      0.0750396
        0.0515838      0.0358906      0.0274731      0.0240815      0.0240815
        0.0274731      0.0358905      0.0515836      0.0750392      0.1034731
        0.1358031      0.1730137      0.2096512      0.2338347      0.2338349
        0.2096518      0.1730145      0.1924380      0.1660558      0.1358038
        0.1048453      0.0753377      0.0526639      0.0385669      0.0309315
        0.0274731      0.0272519      0.0305500      0.0383747      0.0515836
        0.0700314      0.0936960      0.1240946      0.1603189      0.1926606
        0.2096518      0.2098137      0.1924380      0.1984659      0.1924380
        0.1730145      0.1445873      0.1116635      0.0815641      0.0597288
        0.0452513      0.0358905      0.0305500      0.0288232      0.0305500
        0.0358905      0.0452513      0.0597288      0.0815641      0.1116635
        0.1445873      0.1730145      0.1924380      0.1984659      0.1328654
        0.1308304      0.1240949      0.1116635      0.0961166      0.0813525
        0.0692484      0.0597288      0.0526639      0.0483624      0.0469469
        0.0483624      0.0526639      0.0597288      0.0692484      0.0813525
        0.0961166      0.1116635      0.1240949      0.1308304      0.1328654
        0.1308304      0.1484655      0.1603190      0.1603189      0.1484651
        0.1308299      0.1123248      0.0936960      0.0753375      0.0595833
        0.0483624      0.0416485      0.0385669      0.0385669      0.0416484
        0.0483624      0.0595834      0.0753377      0.0936964      0.1123253
        0.1308304      0.1240949      0.1603190      0.1926604      0.2096512
        0.2098128      0.1924369      0.1660548      0.1358031      0.1048449
        0.0753375      0.0526639      0.0385669      0.0309316      0.0274731
        0.0272519      0.0305500      0.0383748      0.0515838      0.0700317
        0.0936964      0.1240949      0.1116635      0.1603189      0.2096512
        0.2524083      0.2639535      0.2413879      0.2149506      0.1808499
        0.1358031      0.0936960      0.0597288      0.0385669      0.0274731