ATOMS
  C         0.0000000      0.0000000      6.7400000
  C         0.0000000      0.0000000      0.0000000
  C         0.0000000      3.3700000      3.3700000
  C         0.0000000      6.7400000      6.7400000
  C         3.3700000      0.0000000      3.3700000
  C         3.3700000      3.3700000      6.7400000
  C         6.7400000      0.0000000      6.7400000
  C         0.0000000      6.7400000      0.0000000
  C         3.3700000      3.3700000      0.0000000
  C         3.3700000      6.7400000      3.3700000
  C         6.7400000      0.0000000      0.0000000
  C         6.7400000      3.3700000      3.3700000
  C         6.7400000      6.7400000      6.7400000
  C         6.7400000      6.7400000      0.0000000
  C         1.6850000      1.6850000      1.6850000
  C         1.6850000      5.0550000      5.0550000
  C         5.0550000      1.6850000      5.0550000
  C         5.0550000      5.0550000      1.6850000
BEGIN_BLOCK_DATAGRID_3D
  non_periodic_3D_density
  BEGIN_DATAGRID_3D_charge_density
               21             21             21
        0.0000000      0.0000000      0.0000000
        6.7400000      0.0000000      0.0000000
        0.0000000      6.7400000      0.0000000
        0.0000000      0.0000000      6.7400000
        0.0424203      0.0290535      0.0289482      0.0200003      0.0121567
        0.0063847      0.0026650      0.0010009      0.0003693      0.0001429
        0.0000873      0.0001429      0.0003693      0.0010009      0.0026650
        0.0063847      0.0121567      0.0200003      0.0289482      0.0290535
        0.0424203      0.0290535      0.0319107      0.0278601      0.0193713
        0.0120558      0.0063916      0.0027626      0.0011043      0.0004461
        0.0002026      0.0001429      0.0002026      0.0004461      0.0011043
        0.0027626      0.0063916      0.0120558      0.0193713      0.0278601
        0.0319107      0.0290535      0.0289482      0.0278601      0.0235454
        0.0172936      0.0115342      0.0064025      0.0031319      0.0015010
        0.0007528      0.0004461      0.0003693      0.0004461      0.0007528
        0.0015010      0.0031319      0.0064025      0.0115342      0.0172936
        0.0235454      0.0278601      0.0289482      0.0200003      0.0193713
        0.0172936      0.0141623      0.0101500      0.0064025      0.0038667
        0.0023549      0.0015010      0.0011043      0.0010009      0.0011043
        0.0015010      0.0023549      0.0038667      0.0064025      0.0101500
        0.0141623      0.0172936      0.0193713      0.0200003      0.0121567
        0.0120558      0.0115342      0.0101500      0.0082197      0.0063916
        0.0049517      0.0038667      0.0031319      0.0027626      0.0026650
        0.0027626      0.0031319      0.0038667      0.0049517      0.0063916
        0.0082197      0.0101500      0.0115342      0.0120558      0.0121567
        0.0063847      0.0063916      0.0064025      0.0064025      0.0063916
        0.0063846      0.0063916      0.0064025      0.0064025      0.0063916
        0.0063847      0.0063916      0.0064025      0.0064025      0.0063916
        0.0063846      0.0063916      0.0064025      0.0064025      0.0063916
        0.0063847      0.0026650      0.0027626      0.0031319      0.0038667
        0.0049517      0.0063916      0.0082197      0.0101500      0.0115342
        0.0120558      0.0121567      0.0120558      0.0115342      0.0101500
        0.0082197      0.0063916      0.0049517      0.0038667      0.0031319
        0.0027626      0.0026650      0.0010009      0.0011043      0.0015010
        0.0023549      0.0038667      0.0064025      0.0101500      0.0141623
        0.0172936      0.0193713      0.0200003      0.0193713      0.0172936
        0.0141623      0.0101500      0.0064025      0.0038667      0.0023549
        0.0015010      0.0011043      0.0010009      0.0003693      0.0004461
        0.0007528      0.0015010      0.0031319      0.0064025      0.0115342
        0.0172936      0.0235454      0.0278601      0.0289482      0.0278601
        0.0235454      0.0172936      0.0115342      0.0064025      0.0031319
        0.0015010      0.0007528      0.0004461      0.0003693      0.0001429
        0.0002026      0.0004461      0.0011043      0.0027626      0.0063916
        0.0120558      0.0193713      0.0278601      0.0319107      0.0290535
        0.0319107      0.0278601      0.0193713      0.0120558      0.0063916
        0.0027626      0.0011043      0.0004461      0.0002026      0.0001429
        0.0000873      0.0001429      0.0003693      0.0010009      0.0026650
        0.0063847      0.0121567      0.0200003      0.0289482      0.0290535
        0.0424203      0.0290535      0.0289482      0.0200003      0.0121567
        0.0063847      0.0026650      0.0010009      0.0003693      0.0001429
        0.0000873      0.0001429      0.0002026      0.0004461      0.0011043
        0.0027626      0.0063916      0.0120558      0.0193713      0.0278601
        0.0319107      0.0290535      0.0319107      0.0278601      0.0193713
        0.0120558      0.0063916      0.0027626      0.0011043      0.0004461
        0.0002026      0.0001429      0.0003693      0.0004461      0.0007528
        0.0015010      0.0031319      0.0064025      0.0115342      0.0172936
        0.0235454      0.0278601      0.0289482      0.0278601      0.0235454
        0.0172936      0.0115342      0.0064025      0.0031319      0.0015010
        0.0007528      0.0004461      0.0003693      0.0010009      0.0011043
        0.0015010      0.0023549      0.0038667      0.0064025      0.0101500
        0.0141623      0.0172936      0.0193713      0.0200003      0.0193713
        0.0172936      0.0141623      0.0101500      0.0064025      0.0038667
        0.0023549      0.0015010      0.0011043      0.0010009      0.0026650
        0.0027626      0.0031319      0.0038667      0.0049517      0.0063916
        0.0082197      0.0101500      0.0115342      0.0120558      0.0121567
        0.0120558      0.0115342      0.0101500      0.0082197      0.0063916
        0.0049517      0.0038667      0.0031319      0.0027626      0.0026650
        0.0063847      0.0063916      0.0064025      0.0064025      0.0063916
        0.0063846      0.0063916      0.0064025      0.0064025      0.0063916
        0.0063847      0.0063916      0.0064025      0.0064025      0.0063916
        0.0063846      0.0063916      0.0064025      0.0064025      0.0063916
        0.0063847      0.0121567      0.0120558      0.0115342      0.0101500
        0.0082197      0.0063916      0.0049517      0.0038667      0.0031319
        0.0027626      0.0026650      0.0027626      0.0031319      0.0038667
        0.0049517      0.0063916      0.0082197      0.0101500      0.0115342
        0.0120558      0.0121567      0.0200003      0.0193713      0.0172936
        0.0141623      0.0101500      0.0064025      0.0038667      0.0023549
        0.0015010      0.0011043      0.0010009      0.0011043      0.0015010
        0.0023549      0.0038667      0.0064025      0.0101500      0.0141623
        0.0172936      0.0193713      0.0200003      0.0289482      0.0278601
        0.0235454      0.0172936      0.0115342      0.0064025      0.0031319
        0.0015010      0.0007528      0.0004461      0.0003693      0.0004461
        0.0007528      0.0015010      0.0031319      0.0064025      0.0115342
        0.0172936      0.0235454      0.0278601      0.0289482      0.0290535
        0.0319107      0.0278601      0.0193713      0.0120558      0.0063916
        0.0027626      0.0011043      0.0004461      0.0002026      0.0001429
        0.0002026      0.0004461      0.0011043      0.0027626      0.0063916
        0.0120558      0.0193713      0.0278601      0.0319107      0.0290535
        0.0424203      0.0290535      0.0289482      0.0200003      0.0121567
        0.0063847      0.0026650      0.0010009      0.0003693      0.0001429
        0.0000873      0.0001429      0.0003693      0.0010009      0.0026650
        0.0063847      0.0121567      0.0200003      0.0289482      0.0290535
        0.0424203      0.0290535      0.0319107      0.0278601      0.0193713
        0.0120558      0.0063916      0.0027626      0.0011043      0.0004461
        0.0002026      0.0001429      0.0002026      0.0004461      0.0011043
        0.0027626      0.0063916      0.0120558      0.0193713      0.0278601
        0.0319107      0.0290535      0.0319107      0.0360502      0.0315876
        0.0227750      0.0148840      0.0082198      0.0038462      0.0017161
        0.0007660      0.0003530      0.0002026      0.0001951      0.0003472
        0.0008340      0.0021077      0.0049517      0.0095795      0.0153912
        0.0222624      0.0274379      0.0319107      0.0278601      0.0315876
        0.0296373      0.0237466      0.0170011      0.0101500      0.0054632
        0.0028838      0.0014915      0.0007660      0.0004461      0.0003472
        0.0004298      0.0008090      0.0017743      0.0038667      0.0074437
        0.0117816      0.0169181      0.0222624      0.0278601      0.0193713
        0.0227750      0.0237466      0.0218614      0.0170011      0.0115342
        0.0074437      0.0047339      0.0028838      0.0017161      0.0011043
        0.0008340      0.0008090      0.0010823      0.0017743      0.0031319
        0.0054632      0.0085655      0.0117816      0.0153912      0.0193713
        0.0120558      0.0148840      0.0170011      0.0170011      0.0148839
        0.0120557      0.0095794      0.0074437      0.0054632      0.0038462
        0.0027626      0.0021077      0.0017743      0.0017743      0.0021077
        0.0027626      0.0038462      0.0054632      0.0074437      0.0095795
        0.0120558      0.0063916      0.0082198      0.0101500      0.0115342
        0.0120557      0.0121566      0.0120557      0.0115342      0.0101500
        0.0082198      0.0063916      0.0049517      0.0038667      0.0031319
        0.0027626      0.0026650      0.0027626      0.0031319      0.0038667
        0.0049517      0.0063916      0.0027626      0.0038462      0.0054632
        0.0074437      0.0095794      0.0120557      0.0148839      0.0170011
        0.0170011      0.0148840      0.0120558      0.0095795      0.0074437
        0.0054632      0.0038462      0.0027626      0.0021077      0.0017743
        0.0017743      0.0021077      0.0027626      0.0011043      0.0017161
        0.0028838      0.0047339      0.0074437      0.0115342      0.0170011
        0.0218614      0.0237466      0.0227750      0.0193713      0.0153912
        0.0117816      0.0085655      0.0054632      0.0031319      0.0017743
        0.0010823      0.0008090      0.0008340      0.0011043      0.0004461
        0.0007660      0.0014915      0.0028838      0.0054632      0.0101500
        0.0170011      0.0237466      0.0296373      0.0315876      0.0278601
        0.0222624      0.0169181      0.0117816      0.0074437      0.0038667
        0.0017743      0.0008090      0.0004298      0.0003472      0.0004461
        0.0002026      0.0003530      0.0007660      0.0017161      0.0038462
        0.0082198      0.0148840      0.0227750      0.0315876      0.0360502
        0.0319107      0.0274379      0.0222624      0.0153912      0.0095795
        0.0049517      0.0021077      0.0008340      0.0003472      0.0001951
        0.0002026      0.0001429      0.0002026      0.0004461      0.0011043
        0.0027626      0.0063916      0.0120558      0.0193713      0.0278601
        0.0319107      0.0290535      0.0319107      0.0278601      0.0193713
        0.0120558      0.0063916      0.0027626      0.0011043      0.0004461
        0.0002026      0.0001429      0.0002026      0.0001951      0.0003472
        0.0008340      0.0021077      0.0049517      0.0095795      0.0153912
        0.0222624      0.0274379      0.0319107      0.0360502      0.0315876
        0.0227750      0.0148840      0.0082198      0.0038462      0.0017161
        0.0007660      0.0003530      0.0002026      0.0004461      0.0003472
        0.0004298      0.0008090      0.0017743      0.0038667      0.0074437
        0.0117816      0.0169181      0.0222624      0.0278601      0.0315876
        0.0296373      0.0237466      0.0170011      0.0101500      0.0054632
        0.0028838      0.0014915      0.0007660      0.0004461      0.0011043
        0.0008340      0.0008090      0.0010823      0.0017743      0.0031319
        0.0054632      0.0085655      0.0117816      0.0153912      0.0193713
        0.0227750      0.0237466      0.0218614      0.0170011      0.0115342
        0.0074437      0.0047339      0.0028838      0.0017161      0.0011043
        0.0027626      0.0021077      0.0017743      0.0017743      0.0021077
        0.0027626      0.0038462      0.0054632      0.0074437      0.0095795
        0.0120558      0.0148840      0.0170011      0.0170011      0.0148839
        0.0120557      0.0095794      0.0074437      0.0054632      0.0038462
        0.0027626      0.0063916      0.0049517      0.0038667      0.0031319
        0.0027626      0.0026650      0.0027626      0.0031319      0.0038667
        0.0049517      0.0063916      0.0082198      0.0101500      0.0115342
        0.0120557      0.0121566      0.0120557      0.0115342      0.0101500
        0.0082198      0.0063916      0.0120558      0.0095795      0.0074437
        0.0054632      0.0038462      0.0027626      0.0021077      0.0017743
        0.0017743      0.0021077      0.0027626      0.0038462      0.0054632
        0.0074437      0.0095794      0.0120557      0.0148839      0.0170011
        0.0170011      0.0148840      0.0120558      0.0193713      0.0153912
        0.0117816      0.0085655      0.0054632      0.0031319      0.0017743
        0.0010823      0.0008090      0.0008340      0.0011043      0.0017161
        0.0028838      0.0047339      0.0074437      0.0115342      0.0170011
        0.0218614      0.0237466      0.0227750      0.0193713      0.0278601
        0.0222624      0.0169181      0.0117816      0.0074437      0.0038667
        0.0017743      0.0008090      0.0004298      0.0003472      0.0004461
        0.0007660      0.0014915      0.0028838      0.0054632      0.0101500
        0.0170011      0.0237466      0.0296373      0.0315876      0.0278601
        0.0319107      0.0274379      0.0222624      0.0153912      0.0095795
        0.0049517      0.0021077      0.0008340      0.0003472      0.0001951
        0.0002026      0.0003530      0.0007660      0.0017161      0.0038462
        0.0082198      0.0148840      0.0227750      0.0315876      0.0360502
        0.0319107      0.0290535      0.0319107      0.0278601      0.0193713
        0.0120558      0.0063916      0.0027626      0.0011043      0.0004461
        0.0002026      0.0001429      0.0002026      0.0004461      0.0011043
        0.0027626      0.0063916      0.0120558      0.0193713      0.0278601
        0.0319107      0.0290535      0.0289482      0.0278601      0.0235454
        0.0172936      0.0115342      0.0064025      0.0031319      0.0015010
        0.0007528      0.0004461      0.0003693      0.0004461      0.0007528
        0.0015010      0.0031319      0.0064025      0.0115342      0.0172936
        0.0235454      0.0278601      0.0289482      0.0278601      0.0315876
        0.0296373      0.0237466      0.0170011      0.0101500      0.0054632
        0.0028838      0.0014915      0.0007660      0.0004461      0.0003472
        0.0004298      0.0008090      0.0017743      0.0038667      0.0074437
        0.0117816      0.0169181      0.0222624      0.0278601      0.0235454
        0.0296373      0.0313533      0.0284360      0.0218614      0.0141622
        0.0085654      0.0051274      0.0028990      0.0014915      0.0007528
        0.0004298      0.0003523      0.0005235      0.0010823      0.0023549
        0.0047339      0.0079964      0.0118790      0.0169181      0.0235454
        0.0172936      0.0237466      0.0284360      0.0284360      0.0237465
        0.0172935      0.0117814      0.0079963      0.0051274      0.0028838
        0.0015010      0.0008090      0.0005235      0.0005235      0.0008090
        0.0015010      0.0028839      0.0051274      0.0079964      0.0117816
        0.0172936      0.0115342      0.0170011      0.0218614      0.0237465
        0.0227748      0.0193711      0.0153910      0.0117814      0.0085654
        0.0054632      0.0031319      0.0017743      0.0010823      0.0008090
        0.0008340      0.0011043      0.0017161      0.0028839      0.0047339
        0.0074437      0.0115342      0.0064025      0.0101500      0.0141622
        0.0172935      0.0193711      0.0200001      0.0193711      0.0172935
        0.0141622      0.0101500      0.0064025      0.0038667      0.0023549
        0.0015010      0.0011043      0.0010009      0.0011043      0.0015010
        0.0023549      0.0038667      0.0064025      0.0031319      0.0054632
        0.0085654      0.0117814      0.0153910      0.0193711      0.0227748
        0.0237465      0.0218614      0.0170011      0.0115342      0.0074437
        0.0047339      0.0028839      0.0017161      0.0011043      0.0008340
        0.0008090      0.0010823      0.0017743      0.0031319      0.0015010
        0.0028838      0.0051274      0.0079963      0.0117814      0.0172935
        0.0237465      0.0284360      0.0284360      0.0237466      0.0172936
        0.0117816      0.0079964      0.0051274      0.0028839      0.0015010
        0.0008090      0.0005235      0.0005235      0.0008090      0.0015010
        0.0007528      0.0014915      0.0028990      0.0051274      0.0085654
        0.0141622      0.0218614      0.0284360      0.0313533      0.0296373
        0.0235454      0.0169181      0.0118790      0.0079964      0.0047339
        0.0023549      0.0010823      0.0005235      0.0003523      0.0004298
        0.0007528      0.0004461      0.0007660      0.0014915      0.0028838
        0.0054632      0.0101500      0.0170011      0.0237466      0.0296373
        0.0315876      0.0278601      0.0222624      0.0169181      0.0117816
        0.0074437      0.0038667      0.0017743      0.0008090      0.0004298
        0.0003472      0.0004461      0.0003693      0.0004461      0.0007528
        0.0015010      0.0031319      0.0064025      0.0115342      0.0172936
        0.0235454      0.0278601      0.0289482      0.0278601      0.0235454
        0.0172936      0.0115342      0.0064025      0.0031319      0.0015010
        0.0007528      0.0004461      0.0003693      0.0004461      0.0003472
        0.0004298      0.0008090      0.0017743      0.0038667      0.0074437
        0.0117816      0.0169181      0.0222624      0.0278601      0.0315876
        0.0296373      0.0237466      0.0170011      0.0101500      0.0054632
        0.0028838      0.0014915      0.0007660      0.0004461      0.0007528
        0.0004298      0.0003523      0.0005235      0.0010823      0.0023549
        0.0047339      0.0079964      0.0118790      0.0169181      0.0235454
        0.0296373      0.0313533      0.0284360      0.0218614      0.0141622
        0.0085654      0.0051274      0.0028990      0.0014915      0.0007528
        0.0015010      0.0008090      0.0005235      0.0005235      0.0008090
        0.0015010      0.0028839      0.0051274      0.0079964      0.0117816
        0.0172936      0.0237466      0.0284360      0.0284360      0.0237465
        0.0172935      0.0117814      0.0079963      0.0051274      0.0028838
        0.0015010      0.0031319      0.0017743      0.0010823      0.0008090
        0.0008340      0.0011043      0.0017161      0.0028839      0.0047339
        0.0074437      0.0115342      0.0170011      0.0218614      0.0237465
        0.0227748      0.0193711      0.0153910      0.0117814      0.0085654
        0.0054632      0.0031319      0.0064025      0.0038667      0.0023549
        0.0015010      0.0011043      0.0010009      0.0011043      0.0015010
        0.0023549      0.0038667      0.0064025      0.0101500      0.0141622
        0.0172935      0.0193711      0.0200001      0.0193711      0.0172935
        0.0141622      0.0101500      0.0064025      0.0115342      0.0074437
        0.0047339      0.0028839      0.0017161      0.0011043      0.0008340
        0.0008090      0.0010823      0.0017743      0.0031319      0.0054632
        0.0085654      0.0117814      0.0153910      0.0193711      0.0227748
        0.0237465      0.0218614      0.0170011      0.0115342      0.0172936
        0.0117816      0.0079964      0.0051274      0.0028839      0.0015010
        0.0008090      0.0005235      0.0005235      0.0008090      0.0015010
        0.0028838      0.0051274      0.0079963      0.0117814      0.0172935
        0.0237465      0.0284360      0.0284360      0.0237466      0.0172936
        0.0235454      0.0169181      0.0118790      0.0079964      0.0047339
        0.0023549      0.0010823      0.0005235      0.0003523      0.0004298
        0.0007528      0.0014915      0.0028990      0.0051274      0.0085654
        0.0141622      0.0218614      0.0284360      0.0313533      0.0296373
        0.0235454      0.0278601      0.0222624      0.0169181      0.0117816
        0.0074437      0.0038667      0.0017743      0.0008090      0.0004298
        0.0003472      0.0004461      0.0007660      0.0014915      0.0028838
        0.0054632      0.0101500      0.0170011      0.0237466      0.0296373
        0.0315876      0.0278601      0.0289482      0.0278601      0.0235454
        0.0172936      0.0115342      0.0064025      0.0031319      0.0015010
        0.0007528      0.0004461      0.0003693      0.0004461      0.0007528
        0.0015010      0.0031319      0.0064025      0.0115342      0.0172936
        0.0235454      0.0278601      0.0289482      0.0200003      0.0193713
        0.0172936      0.0141623      0.0101500      0.0064025      0.0038667
        0.0023549      0.0015010      0.0011043      0.0010009      0.0011043
        0.0015010      0.0023549      0.0038667      0.0064025      0.0101500
        0.0141623      0.0172936      0.0193713      0.0200003      0.0193713
        0.0227750      0.0237466      0.0218614      0.0170011      0.0115342
        0.0074437      0.0047339      0.0028838      0.0017161      0.0011043
        0.0008340      0.0008090      0.0010823      0.0017743      0.0031319
        0.0054632      0.0085655      0.0117816      0.0153912      0.0193713
        0.0172936      0.0237466      0.0284360      0.0284360      0.0237465
        0.0172935      0.0117814      0.0079963      0.0051274      0.0028838
        0.0015010      0.0008090      0.0005235      0.0005235      0.0008090
        0.0015010      0.0028839      0.0051274      0.0079964      0.0117816
        0.0172936      0.0141623      0.0218614      0.0284360      0.0313532
        0.0296371      0.0235451      0.0169179      0.0118789      0.0079963
        0.0047339      0.0023549      0.0010823      0.0005235      0.0003523
        0.0004298      0.0007528      0.0014915      0.0028990      0.0051274
        0.0085655      0.0141623      0.0101500      0.0170011      0.0237465
        0.0296371      0.0315874      0.0278597      0.0222621      0.0169179
        0.0117814      0.0074437      0.0038667      0.0017743      0.0008090
        0.0004298      0.0003472      0.0004461      0.0007660      0.0014915
        0.0028839      0.0054632      0.0101500      0.0064025      0.0115342
        0.0172935      0.0235451      0.0278597      0.0289479      0.0278597
        0.0235451      0.0172935      0.0115342      0.0064025      0.0031319
        0.0015010      0.0007528      0.0004461      0.0003693      0.0004461
        0.0007528      0.0015010      0.0031319      0.0064025      0.0038667
        0.0074437      0.0117814      0.0169179      0.0222621      0.0278597
        0.0315874      0.0296371      0.0237465      0.0170011      0.0101500
        0.0054632      0.0028839      0.0014915      0.0007660      0.0004461
        0.0003472      0.0004298      0.0008090      0.0017743      0.0038667
        0.0023549      0.0047339      0.0079963      0.0118789      0.0169179
        0.0235451      0.0296371      0.0313532      0.0284360      0.0218614
        0.0141623      0.0085655      0.0051274      0.0028990      0.0014915
        0.0007528      0.0004298      0.0003523      0.0005235      0.0010823
        0.0023549      0.0015010      0.0028838      0.0051274      0.0079963
        0.0117814      0.0172935      0.0237465      0.0284360      0.0284360
        0.0237466      0.0172936      0.0117816      0.0079964      0.0051274
        0.0028839      0.0015010      0.0008090      0.0005235      0.0005235
        0.0008090      0.0015010      0.0011043      0.0017161      0.0028838
        0.0047339      0.0074437      0.0115342      0.0170011      0.0218614
        0.0237466      0.0227750      0.0193713      0.0153912      0.0117816
        0.0085655      0.0054632      0.0031319      0.0017743      0.0010823
        0.0008090      0.0008340      0.0011043      0.0010009      0.0011043
        0.0015010      0.0023549      0.0038667      0.0064025      0.0101500
        0.0141623      0.0172936      0.0193713      0.0200003      0.0193713
        0.0172936      0.0141623      0.0101500      0.0064025      0.0038667
        0.0023549      0.0015010      0.0011043      0.0010009      0.0011043
        0.0008340      0.0008090      0.0010823      0.0017743      0.0031319
        0.0054632      0.0085655      0.0117816      0.0153912      0.0193713
        0.0227750      0.0237466      0.0218614      0.0170011      0.0115342
        0.0074437      0.0047339      0.0028838      0.0017161      0.0011043
        0.0015010      0.0008090      0.0005235      0.0005235      0.0008090
        0.0015010      0.0028839      0.0051274      0.0079964      0.0117816
        0.0172936      0.0237466      0.0284360      0.0284360      0.0237465
        0.0172935      0.0117814      0.0079963      0.0051274      0.0028838
        0.0015010      0.0023549      0.0010823      0.0005235      0.0003523
        0.0004298      0.0007528      0.0014915      0.0028990      0.0051274
        0.0085655      0.0141623      0.0218614      0.0284360      0.0313532
        0.0296371      0.0235451      0.0169179      0.0118789      0.0079963
        0.0047339      0.0023549      0.0038667      0.0017743      0.0008090
        0.0004298      0.0003472      0.0004461      0.0007660      0.0014915
        0.0028839      0.0054632      0.0101500      0.0170011      0.0237465
        0.0296371      0.0315874      0.0278597      0.0222621      0.0169179
        0.0117814      0.0074437      0.0038667      0.0064025      0.0031319
        0.0015010      0.0007528      0.0004461      0.0003693      0.0004461
        0.0007528      0.0015010      0.0031319      0.0064025      0.0115342
        0.0172935      0.0235451      0.0278597      0.0289479      0.0278597
        0.0235451      0.0172935      0.0115342      0.0064025      0.0101500
        0.0054632      0.0028839      0.0014915      0.0007660      0.0004461
        0.0003472      0.0004298      0.0008090      0.0017743      0.0038667
        0.0074437      0.0117814      0.0169179      0.0222621      0.0278597
        0.0315874      0.0296371      0.0237465      0.0170011      0.0101500
        0.0141623      0.0085655      0.0051274      0.0028990      0.0014915
        0.0007528      0.0004298      0.0003523      0.0005235      0.0010823
        0.0023549      0.0047339      0.0079963      0.0118789      0.0169179
        0.0235451      0.0296371      0.0313532      0.0284360      0.0218614
        0.0141623      0.0172936      0.0117816      0.0079964      0.0051274
        0.0028839      0.0015010      0.0008090      0.0005235      0.0005235
        0.0008090      0.0015010      0.0028838      0.0051274      0.0079963
        0.0117814      0.0172935      0.0237465      0.0284360      0.0284360
        0.0237466      0.0172936      0.0193713      0.0153912      0.0117816
        0.0085655      0.0054632      0.0031319      0.0017743      0.0010823
        0.0008090      0.0008340      0.0011043      0.0017161      0.0028838
        0.0047339      0.0074437      0.0115342      0.0170011      0.0218614
        0.0237466      0.0227750      0.0193713      0.0200003      0.0193713
        0.0172936      0.0141623      0.0101500      0.0064025      0.0038667
        0.0023549      0.0015010      0.0011043      0.0010009      0.0011043
        0.0015010      0.0023549      0.0038667      0.0064025      0.0101500
        0.0141623      0.0172936      0.0193713      0.0200003      0.0121567
        0.0120558      0.0115342      0.0101500      0.0082197      0.0063916
        0.0049517      0.0038667      0.0031319      0.0027626      0.0026650
        0.0027626      0.0031319      0.0038667      0.0049517      0.0063916
        0.0082197      0.0101500      0.0115342      0.0120558      0.0121567
        0.0120558      0.0148840      0.0170011      0.0170011      0.0148839
        0.0120557      0.0095794      0.0074437      0.0054632      0.0038462
        0.0027626      0.0021077      0.0017743      0.0017743      0.0021077
        0.0027626      0.0038462      0.0054632      0.0074437      0.0095795
        0.0120558      0.0115342      0.0170011      0.0218614      0.0237465
        0.0227748      0.0193711      0.0153910      0.0117814      0.0085654
        0.0054632      0.0031319      0.0017743      0.0010823      0.0008090
        0.0008340      0.0011043      0.0017161      0.0028839      0.0047339
        0.0074437      0.0115342      0.0101500      0.0170011      0.0237465
        0.0296371      0.0315874      0.0278597      0.0222621      0.0169179
        0.0117814      0.0074437      0.0038667      0.0017743      0.0008090